<?xml version="1.0"?>
<VTKFile type="UnstructuredGrid"  version="0.1"  >
<UnstructuredGrid>
<Piece  NumberOfPoints="549" NumberOfCells="996">
<Points>
<DataArray  type="Float64"  NumberOfComponents="3"  format="ascii">1 0 0  0.9921147013144779 0.1253332335643043 0  0.9685831611286311 0.2486898871648548 0  0.9297764858882515 0.3681245526846779 0  0.8763066800438636 0.4817536741017153 0  0.8090169943749475 0.5877852522924731 0  0.7289686274214116 0.6845471059286886 0  0.6374239897486897 0.7705132427757893 0  0.5358267949789965 0.8443279255020151 0  0.4257792915650727 0.9048270524660196 0  0.3090169943749475 0.9510565162951535 0  0.1873813145857247 0.9822872507286886 0  0.06279051952931353 0.9980267284282716 0  -0.0627905195293134 0.9980267284282716 0  -0.1873813145857246 0.9822872507286887 0  -0.3090169943749471 0.9510565162951536 0  -0.4257792915650727 0.9048270524660195 0  -0.5358267949789969 0.844327925502015 0  -0.6374239897486897 0.7705132427757893 0  -0.7289686274214113 0.6845471059286888 0  -0.8090169943749473 0.5877852522924732 0  -0.8763066800438636 0.4817536741017152 0  -0.9297764858882513 0.3681245526846781 0  -0.968583161128631 0.2486898871648552 0  -0.9921147013144778 0.1253332335643045 0  -1 1.224646799147353e-16 0  -0.9921147013144779 -0.1253332335643043 0  -0.9685831611286312 -0.2486898871648546 0  -0.9297764858882515 -0.3681245526846779 0  -0.8763066800438635 -0.4817536741017154 0  -0.8090169943749478 -0.5877852522924727 0  -0.7289686274214118 -0.6845471059286884 0  -0.6374239897486895 -0.7705132427757894 0  -0.5358267949789963 -0.8443279255020153 0  -0.4257792915650722 -0.9048270524660198 0  -0.3090169943749476 -0.9510565162951535 0  -0.1873813145857246 -0.9822872507286887 0  -0.06279051952931321 -0.9980267284282716 0  0.06279051952931283 -0.9980267284282716 0  0.1873813145857243 -0.9822872507286887 0  0.3090169943749472 -0.9510565162951536 0  0.4257792915650718 -0.9048270524660199 0  0.5358267949789968 -0.844327925502015 0  0.6374239897486893 -0.7705132427757896 0  0.7289686274214112 -0.6845471059286889 0  0.8090169943749473 -0.5877852522924734 0  0.8763066800438631 -0.4817536741017161 0  0.9297764858882515 -0.3681245526846779 0  0.968583161128631 -0.2486898871648553 0  0.9921147013144778 -0.1253332335643046 0  -5.551115123125783e-17 -1.110223024625157e-16 0  0.4921147013144778 0.09387589993747901 0  0.164946332038664 0.4721368000183987 0  -0.3429502870162293 0.3652049622806284 0  -0.2944737027324599 -0.4053082804951612 0  0.2944737027324602 -0.405308280495161 0  -0.5507215368701579 -0.03464846224160473 0  -1.804112415015879e-16 -0.6318433640567385 0  0.5017557668769744 0.4328336850615727 0  0.6061863304753621 -0.2852496348808314 0  -0.1358408947235333 0.6411427679795199 0  6.076435770007564e-17 -0.3096279744547509 0  -0.6366970142909065 0.299606872879787 0  -0.5941257699849294 -0.3770436788007121 0  -0.2814421516390608 0.07933658692761553 0  0.2758450794945627 -0.1092147930609316 0  -0.0611188837571598 0.2862339069546918 0  0.7109455936013644 0.2310002263110787 0  0.7293099689808291 -0.04148033049417528 0  0.2703856295263869 -0.678657325421763 0  -0.2703856295263871 -0.6786573254217632 0  -0.3973157920514585 0.6217033171369042 0  0.5117211650769355 -0.5449276932119251 0  0.1865984906096439 0.7267531380426068 0  0.2239700279686223 0.1627237503177541 0  -0.3382042248310038 -0.1616347807991064 0  -0.7548591165404922 0.09102905312397788 0  -0.7581393994630918 -0.144622825151442 0  -0.4881308531678757 -0.5878246784008836 0  0.348783293657067 0.5847324054619338 0  -0.4755650137282017 0.1628676785908406 0  -0.5187536121429932 0.4619536160775378 0  -0.1014330742779327 -0.8029254598225051 0  0.1014330742779323 -0.8029254598225051 0  0.4848122637498843 -0.1150450181777878 0  0.3934741615660777 0.266297563036746 0  0.6935962030574797 0.4223423782789338 0  -0.1337376112354195 -0.1548139872273755 0  0.1567216614316563 -0.5309051581817543 0  -0.1567216614316566 -0.5309051581817547 0  -0.005537362735970643 0.8003893121461885 0  0.782794897081448 -0.2214730950604052 0  0.6760355911337632 -0.4576804631726173 0  0.5662638474377876 0.6030097506074228 0  -0.1674432157571615 0.4491688959817985 0  -0.2765720058990616 0.7658451463664684 0  0.3764396980572819 -0.2515186666398679 0  -0.5132985184775686 -0.2133411551958242 0  0.04485924094079022 0.6105776117594262 0  0.1775971356703172 -0.264028780288307 0  -0.710652591732692 0.4509938485633294 0  -0.7615734011432915 -0.3583692400993626 0  -0.7995667201579346 0.2541156129550596 0  2.044557120422369e-05 0.4422896173570244 0  -0.5633633738495686 0.6218967497146051 0  0.4068574012118662 0.7400708654107084 0  0.4560678345608842 -0.3926961738835126 0  0.007102902097540015 -0.4707356692557447 0  0.3379641197173506 0.4208604838204083 0  -0.6485676252536567 -0.5365418014383394 0  0.5515014108297057 0.2422768004648022 0  0.1139816595948179 -0.1150751573871997 0  0.115140139970958 0.302299549811861 0  0.03942552510922894 0.1580606864109624 0  -0.1245128945075246 0.1329827866141144 0  -0.2198456037602361 0.2621555847872319 0  0.4406623202327313 -0.7013193836962605 0  -0.4113620924436057 -0.7482648683423293 0  0.8532505930874034 0.05368197714807335 0  -0.1413213443044168 -0.3756741861731424 0  -0.4858615424652701 0.3140420676407596 0  -0.4485147154387676 -0.4358618099463282 0  0.1902961412718135 0.01538299353304945 0  0.3472295346679249 0.03146570739120753 0  -0.3979972150029172 -0.02037924112987653 0  -0.3954660745555409 -0.2997266534153455 0  -0.2325096475812733 -0.261982728347167 0  -0.6220551656903467 0.1535529621706258 0  -0.1633301784992677 -0.009819233778947001 0  -0.261509394406509 0.5632419542602618 0  -0.4191863950796677 0.7624972220020082 0  -0.6650591777261121 -0.2530190234165567 0  -0.8510667163434141 -0.02548050347139084 0  0.2563637111563682 0.3001979768362704 0  0.3559607740017536 -0.5484625135783691 0  0.8547305230639426 -0.1021544755016418 0  0.2450443034430141 -0.8211901305246583 0  -0.2450443034430144 -0.8211901305246583 0  0.1332327584002823 -0.6665711357626923 0  -0.1328680691158958 -0.6686774890569923 0  -0.2938745325577611 -0.5429913478408251 0  -0.3436568165266343 0.2020846010384665 0  -0.1482489918684586 0.8395639992350657 0  0.660707036437311 -0.1598086387512893 0  0.5877421511765665 -0.01405465816917156 0  0.6817621470173979 0.09217421879172429 0  0.788057466575427 -0.3708316953130141 0  0.1248083155770116 -0.3941542034197078 0  0.1100406296549486 0.8710612765493153 0  -0.389108282976454 0.4894322866504808 0  0.7979384326543179 0.3353456764373644 0  0.8430978176716021 0.1912958245514408 0  0.5645845380161184 -0.663286093839682 0  0.2918011949517768 0.8148944325528171 0  0.1722170460393504 0.5997473115020098 0  -1.804112415015879e-16 -0.8842126959935835 0  -0.003108829126722473 -0.1771412874551719 0  -0.6132756965921209 -0.1410140083979827 0  -0.6864137510722936 -0.02642412345892793 0  0.6858853924601956 0.5674137433346411 0  -0.08011073921891687 0.5333805024040698 0  -0.8677659436928039 0.1477486518752669 0  0.3458792691366889 0.1537009357346368 0  -0.529621457057986 -0.706264022277715 0  -0.3798190170760163 -0.6345853009106763 0  -0.2789460966689019 -0.05326816175450855 0  -0.8368541026649797 -0.2502590049103582 0  -0.6892168263286418 0.5701697451138694 0  -0.8076258665298202 0.3762720963577401 0  -0.7552525763587475 -0.4792834461270122 0  0.6587525902543554 -0.5813215209101753 0  0.5262329873980602 0.724297569810225 0  0.4894901398653181 -0.2808000189311061 0  0.36544133780827 -0.7981163347716819 0  0.5937099847216754 0.3550671119448218 0  0.5738768813564494 -0.3987006123365054 0  0.5987485017131994 0.4933814341558659 0  0.4535822110674646 0.6340776606870822 0  -0.8748231895269057 -0.1398211897894625 0  -0.4446712926521073 -0.1234190743336971 0  -0.5309612799416347 0.7308055061818993 0  -0.5513109527444395 -0.4806981994632509 0  -0.1208229683032566 -0.2658177423834224 0  0.2992453440643529 0.6917773174041961 0  0.2695837116523747 0.5076682175678295 0  0.4146520359745282 0.4980904972466025 0  -0.2853680121879963 0.457289186282933 0  -0.4943194992286108 -0.3396092956690523 0  -0.5435626009491896 0.07568441285914786 0  -0.3917564507986055 0.09030300589349638 0  -0.5543198402015459 0.2341042778151948 0  5.551115123125783e-17 0.9091048986979149 0  0.4831464619015386 -0.01039871266908957 0  0.559302924742741 -0.1903038660316742 0  0.3813836822871907 -0.07431616711033877 0  0.09081490656259927 0.06129513385292702 0  0.8574678067664434 -0.2936140474982993 0  -0.6238897369570615 -0.64578837648197 0  -0.2390446287791408 0.3642763251824436 0  0.0737748217161333 0.719851153143275 0  -0.03527190261667831 0.6917858842931595 0  -0.07787840129693434 -0.06789624427393486 0  -0.2359204182370712 -0.1597382140676945 0  -0.7195691376679518 0.1883744647441662 0  -0.3368304830932085 0.8507366885106998 0  -0.2993580852449131 0.6622895927702211 0  -1.554200988057963e-16 -0.7474538020514868 0  -0.6169407697055043 0.4956539576964142 0  0.7725261858808761 0.4902600254181816 0  0.776019911178609 -0.4709751424932295 0  0.7108915899939189 -0.2987785812153087 0  -0.4804129266943127 0.5588398462502984 0  -0.5676569472830693 0.3734656700750012 0  0.07716980844383856 -0.2415373498204866 0  -0.4364356801654276 0.4011583725220029 0  0.2532990945645045 -0.57420554507154 0  -0.3990848900774934 -0.5303890244854931 0  0.2744474807484245 -0.2169098640875462 0  -0.338794824409625 -0.8556980483356376 0  -0.1642007085248099 -0.8831215162962122 0  0.09900205607922399 -0.903821447897692 0  -0.1753930468302081 0.7382679892891887 0  0.5873764104639461 0.1418373664630086 0  0.4834307133030226 0.3262782629721518 0  0.4417946902008356 0.1795147905042064 0  -0.913791232491425 0.05589235344952934 0  0.2290268693064235 0.8920007628181473 0  -0.2405894073254646 0.8780695596504279 0  0.1868270855059035 0.3734984203201607 0  0.09207277945087866 0.404225334726265 0  -0.1383541951272536 0.3519923072098705 0  0.01437379641628295 0.3466618740610047 0  -0.2522334968341651 0.171281670519164 0  0.7022673566048333
[...]
<PointData  Scalars="f_17"> 
<DataArray  type="Float64"  Name="f_17"  format="ascii">0.0000000000000000e+00  0.0000000000000000e+00  0.0000000000000000e+00  0.0000000000000000e+00  0.0000000000000000e+00  0.0000000000000000e+00  0.0000000000000000e+00  0.0000000000000000e+00  0.0000000000000000e+00  0.0000000000000000e+00  0.0000000000000000e+00  0.0000000000000000e+00  0.0000000000000000e+00  0.0000000000000000e+00  0.0000000000000000e+00  0.0000000000000000e+00  0.0000000000000000e+00  0.0000000000000000e+00  0.0000000000000000e+00  0.0000000000000000e+00  0.0000000000000000e+00  0.0000000000000000e+00  0.0000000000000000e+00  0.0000000000000000e+00  0.0000000000000000e+00  0.0000000000000000e+00  0.0000000000000000e+00  0.0000000000000000e+00  0.0000000000000000e+00  0.0000000000000000e+00  0.0000000000000000e+00  0.0000000000000000e+00  0.0000000000000000e+00  0.0000000000000000e+00  0.0000000000000000e+00  0.0000000000000000e+00  0.0000000000000000e+00  0.0000000000000000e+00  0.0000000000000000e+00  0.0000000000000000e+00  0.0000000000000000e+00  0.0000000000000000e+00  0.0000000000000000e+00  0.0000000000000000e+00  0.0000000000000000e+00  0.0000000000000000e+00  0.0000000000000000e+00  0.0000000000000000e+00  0.0000000000000000e+00  0.0000000000000000e+00  6.8477525929374113e-03  4.7583437491677504e-03  1.6890790463680441e-02  9.6777662397505154e-03  2.4721565524168073e-03  2.4722990885598616e-03  3.4224536159228997e-03  1.5345386559009410e-03  6.4405520783666253e-03  1.8481492572014562e-03  2.6315976809614408e-02  3.5957607655735472e-03  3.7414274153504869e-03  1.5201308277010038e-03  6.7228926984971632e-03  4.7569218155688172e-03  1.2310750911907390e-02  2.6793548068273763e-03  1.9412954235828121e-03  1.0950869591843128e-03  1.0950237880708836e-03  9.5356958842433004e-03  1.1289774841591934e-03  2.4003502586395220e-02  8.3986281159637854e-03  3.9954171830099720e-03  2.0229188752289825e-03  1.4441873178973551e-03  1.0219781697775295e-03  1.1741923476914462e-02  5.4347602251855155e-03  6.0614541101032164e-03  7.1698606936794322e-04  7.1702094386689530e-04  3.4483114113946613e-03  7.5320154730028023e-03  2.7398475245434041e-03  4.8401001905856618e-03  1.9933809412822552e-03  1.9932548807374182e-03  3.9887704334664521e-02  1.0816967942852034e-03  8.7237183850407502e-04  4.1962007791788228e-03  1.6004249664070328e-02  1.4349213311262170e-02  3.1653984945342432e-03  2.6996418515411930e-03  2.9117021161035143e-02  3.7610694973804941e-03  2.3579971134766102e-03  8.0969554192500414e-04  1.6405912387978483e-03  1.8163417744892683e-02  4.0577633658225578e-03  7.2876634777913627e-03  2.0167277698391671e-03  2.4512970033092828e-03  1.0553627725266164e-02  7.0725043899360306e-04  4.8549304896407181e-03  5.2945515015384659e-03  1.2348125827586326e-02  9.4193826563777998e-03  8.6406187380035707e-03  1.0183784871346519e-02  6.8772693411337958e-04  5.6741503600115577e-04  1.1063016599934280e-03  2.9893282044268664e-03  6.2862596747418906e-03  1.8269540157176652e-03  6.5462728193424972e-03  5.6418891726350432e-03  4.7609806723791790e-03  2.7761258318140169e-03  3.6302590406593581e-03  3.5822226306115464e-03  6.3565888783730399e-03  1.5670840821968658e-02  6.1062419815015164e-03  1.6582412644586268e-03  1.0358312402448809e-03  1.0352771794314000e-02  1.5407771507991925e-03  8.9172310159047223e-04  5.3165935744375545e-04  5.3164868070979074e-04  1.3080781201685165e-03  1.2981657662934410e-03  1.7051279228004954e-03  7.5558329990079217e-03  2.3236498727422235e-02  2.0396970847318336e-03  3.2161306932175760e-03  2.7426789243949960e-03  6.4918097710614823e-04  2.8835906603485607e-03  2.3717053015165815e-02  9.7138277501957679e-03  1.5315579401124712e-03  1.2282711782951067e-03  5.2736805383261692e-04  1.1033046306043976e-02  2.1817182754540060e-02  4.1449973996954173e-04  4.7743566320136033e-03  2.4335454144687406e-03  2.3322599092277965e-03  2.0231255062198631e-03  2.2342505210407811e-02  1.0101053395378970e-03  6.9582348144116030e-03  4.6583859181223620e-04  1.0913806257963931e-03  5.2764727972809755e-03  7.0246956217186185e-04  1.9387694131916234e-03  1.2970250402522853e-03  4.8648616454641578e-04  5.2339870079427808e-04  3.4273924392938869e-03  2.4604540223103137e-03  4.5965514136945770e-04  4.4924860498554353e-03  1.5169507801046252e-03  4.2068657209809986e-03  7.2456847277603889e-03  6.9646079766707550e-04  3.6593286580079228e-03  3.1520848932500194e-03  1.2620421709221784e-03  3.8589280442984995e-03  1.4282485164535560e-02  1.4212473571721677e-02  8.9603420451525844e-03  1.2671850607286280e-02  2.1311387485998768e-03  4.0987712831899170e-03  5.7947791941083899e-03  4.7765550418340831e-03  2.2462402377737164e-02  4.1384363488384682e-03  2.5495803091407760e-03  4.4405945996646781e-03  7.6110792414138366e-03  4.9571424568246696e-04  4.2036692443757714e-04  1.1968105167826565e-02  3.6212093121280528e-02  3.6665807852340498e-02  5.9003819642366893e-03  4.4719278259894458e-03  2.5334186325727337e-03  6.1943116563844451e-03  1.4420428373714697e-02  9.8125394468761814e-04  3.8201286532192980e-03  1.2280976542628100e-03  4.2632850894414693e-04  1.2485425638228912e-03  6.8934903381472510e-03  4.9773408887073016e-03  4.1267424181613216e-03  7.8408151833163128e-03  1.6210671084410883e-03  1.5186863572281960e-03  3.8417397978226034e-03  2.8830517509054074e-04  3.6387305992893829e-04  3.2067696562923536e-04  2.5132220351766571e-02  3.9442203173602345e-03  6.4037530968172546e-03  6.0054051999481849e-03  6.2116023641574998e-04  9.6897972846558700e-03  1.0163176335500937e-02  1.3254987747119615e-02  1.5841116213207294e-02  1.3465404019126007e-02  1.4311033073965177e-02  8.2448081902390356e-03  2.7964076676543844e-03  5.4533135574646693e-04  7.6656729880837660e-04  2.8580589265498569e-03  9.8841950114663020e-04  8.8853193458111261e-04  1.1540951254791938e-02  4.5919789763692424e-03  3.1636494091731027e-03  1.8443328555124306e-03  8.8377487310646336e-04  1.4453218778023656e-03  2.5882848139037844e-03  1.7426439222461318e-03  2.4130507414157729e-03  1.7356013139728109e-03  1.5422904517836595e-03  2.2083446971928686e-03  9.7972597214988845e-04  1.9582145630102259e-03  8.8133283820502010e-03  6.2931501274454552e-03  1.9352812304576916e-02  2.6312408494700120e-04  2.2032641403260823e-02  3.2057841749504900e-03  2.0230684919006485e-03  7.3907585433924091e-03  1.7948808137385093e-03  6.6117475931962892e-04  6.7491376473525575e-03  3.5394138961272303e-02  6.8902532699476023e-03  1.3498970048876570e-02  2.7721420821710751e-03  6.3627464907284569e-03  4.2066057452467903e-04  5.4888204330895887e-03  3.9214505756813012e-03  1.6458527782833306e-02  5.7219538860440585e-03  1.8431766579297081e-03  1.0147121899126454e-02  3.1650147391709926e-04  2.4895508873674023e-03  1.0926228766981892e-03  1.1318169081947821e-03  2.9733647524166208e-03  4.3588615209511471e-03  3.1360477846859441e-03  2.5807709482491442e-03  2.3237045651861254e-02  1.9835423027426058e-03  8.1085522595295001e-03  8.3375441169636810e-04  0.0000000000000000e+00  3.7926042087768779e-03  6.4018394156625377e-03  1.1201362611325280e-03  8.5276244629400588e-03  3.1404500220672720e-04  1.9020641421678162e-02  1.2563540525629985e-03  3.0583812166884395e-03  4.4853230485903550e-04  3.8387376574305714e-04  1.2366845825133204e-03  8.7914211960239035e-04  3.4874518776963775e-04  1.6601553542733769e-02  8.1510591005279701e-03  3.0118085387115631e-03  3.0003971442438839e-03  2.6371904477680477e-03  2.9786134584000087e-02  5.3325183195700385e-03  7.6151586935331497e-04  9.9590782145381283e-04  2.0007241684517796e-03  9.4908337808487855e-03  1.0380137879225197e-02  7.3280424316168489e-03  3.3178687032991323e-03  5.3669923102149649e-03  2.9126628613373735e-04  1.9702624829093615e-02  1.0140597510578208e-02  1.5944715015818050e-03  2.9001720968690286e-02  9.3710222644640979e-03  2.9225021204414296e-04  7.6955304086494941e-04  9.2190147015731323e-03  2.0059431887193956e-03  0.0000000000000000e+00  0.0000000000000000e+00  7.0197079313360838e-04  1.2702144410249526e-03  1.2817348624751868e-03  3.7039233073692785e-03  2.8959542880861516e-04  1.4981575836030641e-03  2.3958008715864237e-03  1.9670025775577918e-03  3.6890338007158381e-04  1.4855666375038444e-03  3.0540138674993004e-02  8.0519420590478656e-04  2.2848366267837287e-04  3.4431608725082473e-03  0.0000000000000000e+00  3.1350607593590525e-03  1.2954502090825014e-02  5.6698463859319054e-03  5.2231830165359559e-03  2.8995846996496886e-03  3.1070798592451295e-04  2.7850856295182709e-04  7.5676836012751809e-04  1.3867839079797083e-03  3.5687915146005479e-03  5.3271211798478770e-04  1.3121065003793722e-03  1.0630109396209446e-02  3.7970155819587650e-03  1.2394616072313517e-03  2.4426990603333130e-03  2.8026008068048277e-02  6.2345731157952859e-03  1.0601574725401187e-03  2.3181000450024818e-03  3.4228326855015529e-03  1.7427012466137432e-03  5.6911396980601292e-03  4.3351107341894953e-03  1.2485530229310146e-03  6.1764795644168929e-03  3.1633016533210434e-03  1.6792724159526396e-03  7.8326170803045443e-03  2.2621142971729186e-03  1.3851598059272253e-03  7.4600200581742089e-03  4.7742641792272023e-04  1.5898942177855454e-03  0.0000000000000000e+00  4.8934541722363738e-03  3.2911424573522446e-03  4.9625208249176314e-03  0.0000000000000000e+00  1.9239987368497888e-03  0.0000000000000000e+00  6.8220796916151731e-04  1.8038524211553181e-02  1.1813664646554917e-02  1.7167690655503331e-03  4.4673903125608330e-03  1.1472601227814755e-03  5.0055189297312794e-03  3.7374384210916950e-03  4.4458067664885177e-03  2.6296591713507915e-03  8.6804510235379939e-04  4.2102157115491180e-03  1.1345748493656532e-02  2.3160928873865957e-03  1.9793850918326051e-03  2.0547458096206394e-03  1.7494437219039412e-03  7.7032930535502571e-04  2.6349809660152737e-03  0.0000000000000000e+00  0.0000000000000000e+00  3.8401598854516508e-04  4.5380758465186095e-03  3.8434283589503563e-03  9.0826320426865839e-04  1.9331377190732427e-03  1.0244441834790056e-02  2.8865367964209794e-03  3.9066560337731237e-03  5.9804887128644447e-04  4.9403699342662252e-03  8.4997211496009391e-04  1.8586044641852158e-02  8.5316826269935322e-04  3.0846168471503901e-04  1.9718691147370852e-02  3.4210378899290094e-03  2.4903820897440939e-03  8.0722386583007098e-03  1.1346464733584458e-02  1.5593977260502167e-02  3.7393175345598810e-03  1.0098600499330469e-03  5.0318864609495530e-03  2.0902199754586070e-02  4.2318515876464560e-04  0.0000000000000000e+00  8.2742993701760486e-04  3.9899648717277867e-03  1.9590539680084773e-03  5.9793289303056401e-04  1.2390840411346438e-03  1.3887731792017648e-03  1.3758499289117775e-03  7.1608265482615424e-03  6.4209378487466743e-03  9.7039995149617534e-03  6.1070828461877030e-03  1.6641574732585939e-02  9.7724083402350574e-04  1.4486760639469244e-02  1.6291578542053681e-03  1.5403991122968142e-03  6.8532064884498924e-04  2.1233279036136882e-03  4.1293009142745165e-04  9.1483738862970336e-03  5.1661959621075761e-03  1.9977042637840670e-03  3.2195228140664382e-03  2.0607437789983275e-03  2.8233120146388783e-03  1.9317464184228446e-03  7.2828803696454243e-04  2.6424093532975432e-03  3.2774888516231068e-04  3.2600794830613442e-02  1.1538434690448638e-02  1.6163725844061644e-02  3.4593162695634723e-03  2.6758412718139238e-03  1.0920701803089591e-03  2.1268816807962801e-04  6.3145570776233324e-03  6.1431197254589055e-03  1.7437975159802097e-02  6.2238466525495434e-04  8.3531189471271992e-03  3.9099289849346582e-03  9.6131956578433750e-03  7.7600231165381338e-03  4.8909046803271763e-03  4.1471081705769441e-03  1.9342464060247957e-03  3.2454715514946990e-02  1.2875197947950797e-02  2.2187512583757706e-03  1.1207439867858137e-03  1.6205538414210377e-03  3.7891669985667814e-02  6.3341563626770380e-04  3.0623972625234809e-03  0.0000000000000000e+00  2.1883979590242653e-04  6.1618123814863811e-04  2.4979677297785413e-04  0.0000000000000000e+00  0.0000000000000000e+00  8.0246243501093089e-03  0.0000000000000000e+00  2.5846990337272557e-02  3.3618935195427429e-03  7.0905472483788297e-03  8.0096962293605394e-03  5.6716389729889061e-03  3.4472093183876935e-03  1.7538312533530154e-03  1.8743891184748564e-03  2.4375986600436821e-03  3.4633841234516161e-04  8.1785288082110886e-04  1.2504417264345442e-03  4.7365385786338381e-03  4.5480956014600177e-04  0.0000000000000000e+00  0.0000000000000000e+00  9.4197218746505523e-03  1.1526170898382603e-02  1.4066836148265056e-03  0.0000000000000000e+00  0.0000000000000000e+00  0.0000000000000000e+00  0.0000000000000000e+00  0.0000000000000000e+00  0.0000000000000000e+00  0.0000000000000000e+00  0.0000000000000000e+00  0.0000000000000000e+00  0.0000000000000000e+00  0.0000000000000000e+00  0.0000000000000000e+00  0.0000000000000000e+00  0.0000000000000000e+00  0.0000000000000000e+00  0.0000000000000000e+00  0.0000000000000000e+00  0.0000000000000000e+00  0.0000000000000000e+00  0.0000000000000000e+00  0.0000000000000000e+00  0.0000000000000000e+00  0.0000000000000000e+00  0.0000000000000000e+00  0.0000000000000000e+00  0.0000000000000000e+00  0.0000000000000000e+00  0.0000000000000000e+00  0.0000000000000000e+00  0.0000000000000000e+00  0.0000000000000000e+00  0.0000000000000000e+00  0.0000000000000000e+00  0.0000000000000000e+00  2.1525798767836236e-04  </DataArray> 
</PointData> 
</Piece>
</UnstructuredGrid>
</VTKFile>