<?xml version="1.0"?>
<VTKFile type="UnstructuredGrid"  version="0.1"  >
<UnstructuredGrid>
<Piece  NumberOfPoints="549" NumberOfCells="996">
<Points>
<DataArray  type="Float64"  NumberOfComponents="3"  format="ascii">1 0 0  0.9921147013144779 0.1253332335643043 0  0.9685831611286311 0.2486898871648548 0  0.9297764858882515 0.3681245526846779 0  0.8763066800438636 0.4817536741017153 0  0.8090169943749475 0.5877852522924731 0  0.7289686274214116 0.6845471059286886 0  0.6374239897486897 0.7705132427757893 0  0.5358267949789965 0.8443279255020151 0  0.4257792915650727 0.9048270524660196 0  0.3090169943749475 0.9510565162951535 0  0.1873813145857247 0.9822872507286886 0  0.06279051952931353 0.9980267284282716 0  -0.0627905195293134 0.9980267284282716 0  -0.1873813145857246 0.9822872507286887 0  -0.3090169943749471 0.9510565162951536 0  -0.4257792915650727 0.9048270524660195 0  -0.5358267949789969 0.844327925502015 0  -0.6374239897486897 0.7705132427757893 0  -0.7289686274214113 0.6845471059286888 0  -0.8090169943749473 0.5877852522924732 0  -0.8763066800438636 0.4817536741017152 0  -0.9297764858882513 0.3681245526846781 0  -0.968583161128631 0.2486898871648552 0  -0.9921147013144778 0.1253332335643045 0  -1 1.224646799147353e-16 0  -0.9921147013144779 -0.1253332335643043 0  -0.9685831611286312 -0.2486898871648546 0  -0.9297764858882515 -0.3681245526846779 0  -0.8763066800438635 -0.4817536741017154 0  -0.8090169943749478 -0.5877852522924727 0  -0.7289686274214118 -0.6845471059286884 0  -0.6374239897486895 -0.7705132427757894 0  -0.5358267949789963 -0.8443279255020153 0  -0.4257792915650722 -0.9048270524660198 0  -0.3090169943749476 -0.9510565162951535 0  -0.1873813145857246 -0.9822872507286887 0  -0.06279051952931321 -0.9980267284282716 0  0.06279051952931283 -0.9980267284282716 0  0.1873813145857243 -0.9822872507286887 0  0.3090169943749472 -0.9510565162951536 0  0.4257792915650718 -0.9048270524660199 0  0.5358267949789968 -0.844327925502015 0  0.6374239897486893 -0.7705132427757896 0  0.7289686274214112 -0.6845471059286889 0  0.8090169943749473 -0.5877852522924734 0  0.8763066800438631 -0.4817536741017161 0  0.9297764858882515 -0.3681245526846779 0  0.968583161128631 -0.2486898871648553 0  0.9921147013144778 -0.1253332335643046 0  -5.551115123125783e-17 -1.110223024625157e-16 0  0.4921147013144778 0.09387589993747901 0  0.164946332038664 0.4721368000183987 0  -0.3429502870162293 0.3652049622806284 0  -0.2944737027324599 -0.4053082804951612 0  0.2944737027324602 -0.405308280495161 0  -0.5507215368701579 -0.03464846224160473 0  -1.804112415015879e-16 -0.6318433640567385 0  0.5017557668769744 0.4328336850615727 0  0.6061863304753621 -0.2852496348808314 0  -0.1358408947235333 0.6411427679795199 0  6.076435770007564e-17 -0.3096279744547509 0  -0.6366970142909065 0.299606872879787 0  -0.5941257699849294 -0.3770436788007121 0  -0.2814421516390608 0.07933658692761553 0  0.2758450794945627 -0.1092147930609316 0  -0.0611188837571598 0.2862339069546918 0  0.7109455936013644 0.2310002263110787 0  0.7293099689808291 -0.04148033049417528 0  0.2703856295263869 -0.678657325421763 0  -0.2703856295263871 -0.6786573254217632 0  -0.3973157920514585 0.6217033171369042 0  0.5117211650769355 -0.5449276932119251 0  0.1865984906096439 0.7267531380426068 0  0.2239700279686223 0.1627237503177541 0  -0.3382042248310038 -0.1616347807991064 0  -0.7548591165404922 0.09102905312397788 0  -0.7581393994630918 -0.144622825151442 0  -0.4881308531678757 -0.5878246784008836 0  0.348783293657067 0.5847324054619338 0  -0.4755650137282017 0.1628676785908406 0  -0.5187536121429932 0.4619536160775378 0  -0.1014330742779327 -0.8029254598225051 0  0.1014330742779323 -0.8029254598225051 0  0.4848122637498843 -0.1150450181777878 0  0.3934741615660777 0.266297563036746 0  0.6935962030574797 0.4223423782789338 0  -0.1337376112354195 -0.1548139872273755 0  0.1567216614316563 -0.5309051581817543 0  -0.1567216614316566 -0.5309051581817547 0  -0.005537362735970643 0.8003893121461885 0  0.782794897081448 -0.2214730950604052 0  0.6760355911337632 -0.4576804631726173 0  0.5662638474377876 0.6030097506074228 0  -0.1674432157571615 0.4491688959817985 0  -0.2765720058990616 0.7658451463664684 0  0.3764396980572819 -0.2515186666398679 0  -0.5132985184775686 -0.2133411551958242 0  0.04485924094079022 0.6105776117594262 0  0.1775971356703172 -0.264028780288307 0  -0.710652591732692 0.4509938485633294 0  -0.7615734011432915 -0.3583692400993626 0  -0.7995667201579346 0.2541156129550596 0  2.044557120422369e-05 0.4422896173570244 0  -0.5633633738495686 0.6218967497146051 0  0.4068574012118662 0.7400708654107084 0  0.4560678345608842 -0.3926961738835126 0  0.007102902097540015 -0.4707356692557447 0  0.3379641197173506 0.4208604838204083 0  -0.6485676252536567 -0.5365418014383394 0  0.5515014108297057 0.2422768004648022 0  0.1139816595948179 -0.1150751573871997 0  0.115140139970958 0.302299549811861 0  0.03942552510922894 0.1580606864109624 0  -0.1245128945075246 0.1329827866141144 0  -0.2198456037602361 0.2621555847872319 0  0.4406623202327313 -0.7013193836962605 0  -0.4113620924436057 -0.7482648683423293 0  0.8532505930874034 0.05368197714807335 0  -0.1413213443044168 -0.3756741861731424 0  -0.4858615424652701 0.3140420676407596 0  -0.4485147154387676 -0.4358618099463282 0  0.1902961412718135 0.01538299353304945 0  0.3472295346679249 0.03146570739120753 0  -0.3979972150029172 -0.02037924112987653 0  -0.3954660745555409 -0.2997266534153455 0  -0.2325096475812733 -0.261982728347167 0  -0.6220551656903467 0.1535529621706258 0  -0.1633301784992677 -0.009819233778947001 0  -0.261509394406509 0.5632419542602618 0  -0.4191863950796677 0.7624972220020082 0  -0.6650591777261121 -0.2530190234165567 0  -0.8510667163434141 -0.02548050347139084 0  0.2563637111563682 0.3001979768362704 0  0.3559607740017536 -0.5484625135783691 0  0.8547305230639426 -0.1021544755016418 0  0.2450443034430141 -0.8211901305246583 0  -0.2450443034430144 -0.8211901305246583 0  0.1332327584002823 -0.6665711357626923 0  -0.1328680691158958 -0.6686774890569923 0  -0.2938745325577611 -0.5429913478408251 0  -0.3436568165266343 0.2020846010384665 0  -0.1482489918684586 0.8395639992350657 0  0.660707036437311 -0.1598086387512893 0  0.5877421511765665 -0.01405465816917156 0  0.6817621470173979 0.09217421879172429 0  0.788057466575427 -0.3708316953130141 0  0.1248083155770116 -0.3941542034197078 0  0.1100406296549486 0.8710612765493153 0  -0.389108282976454 0.4894322866504808 0  0.7979384326543179 0.3353456764373644 0  0.8430978176716021 0.1912958245514408 0  0.5645845380161184 -0.663286093839682 0  0.2918011949517768 0.8148944325528171 0  0.1722170460393504 0.5997473115020098 0  -1.804112415015879e-16 -0.8842126959935835 0  -0.003108829126722473 -0.1771412874551719 0  -0.6132756965921209 -0.1410140083979827 0  -0.6864137510722936 -0.02642412345892793 0  0.6858853924601956 0.5674137433346411 0  -0.08011073921891687 0.5333805024040698 0  -0.8677659436928039 0.1477486518752669 0  0.3458792691366889 0.1537009357346368 0  -0.529621457057986 -0.706264022277715 0  -0.3798190170760163 -0.6345853009106763 0  -0.2789460966689019 -0.05326816175450855 0  -0.8368541026649797 -0.2502590049103582 0  -0.6892168263286418 0.5701697451138694 0  -0.8076258665298202 0.3762720963577401 0  -0.7552525763587475 -0.4792834461270122 0  0.6587525902543554 -0.5813215209101753 0  0.5262329873980602 0.724297569810225 0  0.4894901398653181 -0.2808000189311061 0  0.36544133780827 -0.7981163347716819 0  0.5937099847216754 0.3550671119448218 0  0.5738768813564494 -0.3987006123365054 0  0.5987485017131994 0.4933814341558659 0  0.4535822110674646 0.6340776606870822 0  -0.8748231895269057 -0.1398211897894625 0  -0.4446712926521073 -0.1234190743336971 0  -0.5309612799416347 0.7308055061818993 0  -0.5513109527444395 -0.4806981994632509 0  -0.1208229683032566 -0.2658177423834224 0  0.2992453440643529 0.6917773174041961 0  0.2695837116523747 0.5076682175678295 0  0.4146520359745282 0.4980904972466025 0  -0.2853680121879963 0.457289186282933 0  -0.4943194992286108 -0.3396092956690523 0  -0.5435626009491896 0.07568441285914786 0  -0.3917564507986055 0.09030300589349638 0  -0.5543198402015459 0.2341042778151948 0  5.551115123125783e-17 0.9091048986979149 0  0.4831464619015386 -0.01039871266908957 0  0.559302924742741 -0.1903038660316742 0  0.3813836822871907 -0.07431616711033877 0  0.09081490656259927 0.06129513385292702 0  0.8574678067664434 -0.2936140474982993 0  -0.6238897369570615 -0.64578837648197 0  -0.2390446287791408 0.3642763251824436 0  0.0737748217161333 0.719851153143275 0  -0.03527190261667831 0.6917858842931595 0  -0.07787840129693434 -0.06789624427393486 0  -0.2359204182370712 -0.1597382140676945 0  -0.7195691376679518 0.1883744647441662 0  -0.3368304830932085 0.8507366885106998 0  -0.2993580852449131 0.6622895927702211 0  -1.554200988057963e-16 -0.7474538020514868 0  -0.6169407697055043 0.4956539576964142 0  0.7725261858808761 0.4902600254181816 0  0.776019911178609 -0.4709751424932295 0  0.7108915899939189 -0.2987785812153087 0  -0.4804129266943127 0.5588398462502984 0  -0.5676569472830693 0.3734656700750012 0  0.07716980844383856 -0.2415373498204866 0  -0.4364356801654276 0.4011583725220029 0  0.2532990945645045 -0.57420554507154 0  -0.3990848900774934 -0.5303890244854931 0  0.2744474807484245 -0.2169098640875462 0  -0.338794824409625 -0.8556980483356376 0  -0.1642007085248099 -0.8831215162962122 0  0.09900205607922399 -0.903821447897692 0  -0.1753930468302081 0.7382679892891887 0  0.5873764104639461 0.1418373664630086 0  0.4834307133030226 0.3262782629721518 0  0.4417946902008356 0.1795147905042064 0  -0.913791232491425 0.05589235344952934 0  0.2290268693064235 0.8920007628181473 0  -0.2405894073254646 0.8780695596504279 0  0.1868270855059035 0.3734984203201607 0  0.09207277945087866 0.404225334726265 0  -0.1383541951272536 0.3519923072098705 0  0.01437379641628295 0.3466618740610047 0  -0.2522334968341651 0.171281670519164 0  0.7022673566048333
[...]
<PointData  Scalars="f_31"> 
<DataArray  type="Float64"  Name="f_31"  format="ascii">1.0435449740627480e-45  3.9111099088303976e-40  1.1972556370948821e-34  2.4527657192268910e-29  2.7729530101356289e-24  1.4399681031553330e-19  2.8941585229570955e-15  1.9256940424547578e-11  3.6919496408653435e-08  1.8103315378925459e-05  2.0590339339999560e-03  5.0413758035449452e-02  2.5264532587147731e-01  2.5264532587147753e-01  5.0413758035449542e-02  2.0590339339999798e-03  1.8103315378925425e-05  3.6919496408652647e-08  1.9256940424547578e-11  2.8941585229571571e-15  1.4399681031553431e-19  2.7729530101356095e-24  2.4527657192269258e-29  1.1972556370949332e-34  3.9111099088305094e-40  1.0435449740627628e-45  2.7843403490986993e-51  9.0956858264126129e-57  4.4398293092373642e-62  3.9271711742362533e-67  7.5625710771330075e-72  3.7627037505152329e-76  5.6550318424596019e-80  2.9496234207472424e-83  6.0153960205505206e-86  5.2888206207275730e-88  2.1600970753378858e-89  4.3103354836874413e-90  4.3103354836874413e-90  2.1600970753378858e-89  5.2888206207272728e-88  6.0153960205506913e-86  2.9496234207473261e-83  5.6550318424591195e-80  3.7627037505151261e-76  7.5625710771325782e-72  3.9271711742359179e-67  4.4398293092373642e-62  9.0956858264118375e-57  2.7843403490985806e-51  6.5066584858128794e-18  1.0279394750698143e-20  7.2119129157929536e-04  1.1979732336547516e-08  6.4918877011658019e-43  6.4918877011661707e-43  6.4431135673986097e-28  4.1471354106515394e-57  7.2012414098138171e-11  4.4943478544291081e-43  2.4420158055970179e-01  2.3932111812007814e-34  2.3705888299464309e-18  1.9187514220382885e-48  9.2262511224042382e-17  3.2353937191795177e-25  1.4508630234053910e-07  3.5846871747187531e-23  1.3707090562508047e-34  6.2893595197205150e-63  6.2893595197203369e-63  2.1418049307804537e-05  1.1157707407203062e-57  3.0559700996551670e-01  8.3124192566836345e-13  5.2454178259433207e-29  6.2146750156420584e-30  6.6770401744124796e-41  2.7852554759707254e-60  8.5665470643149169e-05  1.0788132527913348e-17  8.8318777277634264e-11  7.9586896159490411e-72  7.9586896159490411e-72  6.2552862295238652e-30  2.4086398881986219e-12  1.8466602273191864e-17  5.8238109605417245e-26  4.8542517950097143e-50  4.8542517950093012e-50  3.9921194019850526e+00  3.7061737484845181e-46  8.5973284920196094e-57  4.0825079031844191e-10  2.5218034842635126e-04  2.7768364852313317e-02  8.5273449408123284e-35  5.4623281079454036e-36  3.5385432232157682e-01  1.8082257440335400e-32  1.5112956811564571e-17  1.5330365145405344e-53  3.5484742513086071e-26  1.1105103349817900e-03  7.9232821319944412e-10  7.9665798769748943e-05  1.9140347319620545e-45  5.2287363660850151e-45  2.7034609880851843e-07  1.8166826834157022e-61  3.1799537142373690e-17  9.2595680429489553e-24  2.2316889048954227e-07  1.2734647111590506e-11  6.3809273759970447e-13  1.6530186678613930e-09  3.5999417157950997e-68  1.8661771816424988e-71  7.6723203718942307e-36  4.2524533148098043e-39  2.9982876428405595e-13  3.6150568329161035e-48  3.0504589933695614e-18  6.8233084668734441e-20  3.1100009282403530e-23  4.3659319867672558e-38  5.6522129003423999e-33  1.7040311123165969e-22  4.2906535206920280e-19  1.3906779508162910e-03  4.7745681341526226e-05  3.0761408862023176e-43  3.3879515697181275e-39  6.7937131899849578e-09  3.4628747646728025e-54  4.7249057680473765e-43  7.6042761334726802e-75  7.6042761334726802e-75  2.1215790244959831e-60  1.4371766639300867e-60  1.1752573161434728e-52  2.4140825802291127e-13  8.8651046302819247e-01  7.2971042374408009e-38  3.8137932919640057e-28  5.7190706958426490e-27  1.7298989489696583e-55  3.4160671773226098e-40  1.3339454683247851e+00  5.1629397842540716e-07  8.0151708281568942e-24  3.5198773145763243e-30  1.6896468342173742e-68  1.6951962762757147e-02  4.6035794144752056e-02  5.7539280776227563e-79  1.1564582584100230e-26  3.4330469754383552e-35  3.3334722857620574e-32  1.0536252185098848e-14  2.8045092739506363e-02  7.0345305904214100e-33  4.6442690705236469e-15  5.5439300152241942e-71  2.4521050731543350e-61  1.5952135931981093e-22  3.0040096674884055e-50  8.5266525481627960e-15  3.0350848969133704e-23  1.8180041843301478e-61  3.2093286461346886e-65  5.5691706527194463e-08  2.9815377749748679e-39  7.9940068862033824e-75  2.0053813111980155e-15  3.2382161515125451e-49  1.0579931201329620e-12  1.3135245845180039e-06  6.0262312137039645e-46  2.5431410614941662e-29  4.2959750250942638e-08  3.6746728946216211e-54  4.1904819844197496e-32  6.1313468594032900e-03  1.6097949685637649e-04  1.9482038576803848e-07  1.1859464598493881e-05  5.1631252146888135e-43  6.4222964788684975e-23  2.1720639902973734e-18  1.4473002289005657e-17  1.8672114416714007e+00  7.2399966868108867e-25  4.4547954800401530e-36  2.0512640278903693e-25  1.6054566905992581e-15  8.3842505639920559e-54  4.8256721793137786e-69  5.4551104688731154e-07  1.8716762035965557e+00  1.7457995336031107e+00  3.1418424530914634e-21  2.8397480738481731e-27  6.4982127220636689e-25  2.3826052750855818e-03  3.8380590942154592e-03  1.1070084110731229e-66  2.8077550668090336e-13  2.2262872898810565e-19  9.2179101069315525e-62  9.9620267125411886e-48  3.7205366253637371e-08  3.8801166640034250e-14  1.9261292226783440e-30  7.6975146212257248e-10  2.1370052913405941e-54  9.5529709598256915e-54  5.8304745582238986e-31  1.6470194292234471e-79  1.2962589492527926e-79  4.3750377769121972e-81  4.3761593747922461e-01  9.3845434562273065e-22  7.3918503805791330e-13  2.9917289531752846e-16  1.0070739993347001e-38  8.1071624562065958e-02  6.6649664988521776e-02  3.7663096478841065e-06  1.0297086109653643e-04  3.0994579710148487e-06  7.6567906600388438e-06  7.0269881511467798e-13  4.6456393542136849e-20  1.8314729441667590e-49  5.0823042227659413e-29  2.8662629612760942e-27  4.0533513361773761e-54  8.7858208298104536e-68  1.7716782961207982e-08  6.3310598771034027e-27  1.7194496564916690e-36  7.0140354484919835e-30  7.0546877987688438e-68  2.3698748098736473e-40  8.4570956539834503e-20  7.4032233668178508e-54  1.5225501542795473e-44  5.9095512503562255e-54  6.0302878044198751e-56  1.0387214453469005e-46  9.1197501182548598e-58  8.3448150719420250e-48  1.5891868120455321e-12  2.8285916418039973e-09  8.3026748590831912e-03  1.6177312032180604e-75  2.6534065202529482e-02  1.5456207196276480e-33  5.2332476898978442e-42  3.7945782654273633e-16  1.0826435303226946e-11  5.7345391443674087e-71  7.4955222592754267e-14  2.2305142860174096e+00  3.0494063144436844e-16  6.1516429553937280e-01  1.6516309739569035e-32  1.9604094024068770e-19  8.4681321282051470e-45  2.2467728258399924e-22  2.6849516973715751e-29  4.8561998511686393e-03  4.4181143568491334e-22  1.9833019402764949e-12  5.8198857642401121e-10  1.7985082198194261e-76  2.0413271734338612e-44  3.2511926707697790e-60  4.2884457272618054e-61  1.2411929430676308e-39  1.4396844911081037e-23  1.6875089554750532e-33  1.4884854566045653e-40  3.7804938435049014e-02  6.7596316621857040e-49  1.0153266130291685e-09  1.5179033377661851e-27  2.1938255015009016e-48  8.2691684243289042e-19  2.5994915435729180e-06  1.0892658250371868e-47  8.2686812901466478e-12  1.1286566484655358e-80  2.5853261530071636e-01  2.9995812813338747e-50  5.9612046997032639e-32  4.7636334201224298e-56  3.5679478713524719e-60  3.0396936918276609e-18  9.3118542129959772e-61  2.6901461223814581e-66  2.5690541000420445e-04  2.7020907808047510e-14  2.6779075522911565e-37  2.4167965858220014e-38  4.1504612470703767e-22  2.4321323334618006e+00  3.8363587695148201e-23  2.4460365389792643e-66  8.2264895067308513e-23  1.1292370601543580e-31  1.7440520831649410e-11  9.1475500556136502e-10  8.9897783317613531e-16  2.2535116482206453e-06  3.4970695049784664e-04  2.2318309544492799e-71  3.2637207270585479e-02  1.3852757254256536e-04  5.5508336701607636e-37  3.3731842484776287e-01  2.4411487753422431e-09  7.0766957877740487e-82  5.2826017097528148e-31  3.7385854271985903e-10  1.9704981663761011e-47  7.2593354509588645e-87  2.7850230258902785e-37  2.0180823529214204e-35  8.6917126277196095e-49  3.8443777009478457e-34  1.7640386336228165e-15  7.7841584093747642e-80  1.9579244028528420e-51  1.8589475974876394e-45  6.6656635577130389e-51  1.7654380785543104e-65  1.4385239353801577e-53  1.4618138922224582e+00  1.4292165927230834e-67  2.3567700951133587e-82  2.0114453895136132e-35  8.2222547857809783e-43  1.8664923588743359e-37  7.9568396592327475e-06  1.3352312803790581e-18  2.3184313183883986e-22  2.5846583361982970e-40  6.7018730242846012e-76  1.9474619187879780e-78  6.6441049720545582e-63  4.0281955825187323e-54  1.4734823321785597e-32  8.6890791725802203e-41  1.7641907349360159e-37  1.2801976152425894e-03  4.0312165306738732e-24  6.8616054490267569e-62  3.8984680611438893e-42  4.2201723876834590e-01  5.9734985539906534e-19  4.6730571427311977e-65  5.5780358634027391e-34  1.3133152852064613e-35  6.1644490928902355e-29  9.0908103989492615e-20  3.4044211116891727e-26  9.3617249693468151e-21  1.3517274052298473e-14  2.2620538998621138e-23  2.0144940351982385e-48  5.6003754566769780e-11  2.7361116651212713e-38  1.3803844675975628e-58  2.6076088321239043e-15  4.5854746430429871e-43  3.0067952764737206e-26  2.5863434566898780e-59  1.4953571992208824e-10  7.6212819584663827e-27  1.7448974359420200e-18  1.6622109865365092e-81  8.0527738720450586e-33  2.7850230258904368e-37  1.4319568990478302e-65  2.0365190647107795e-01  4.9409948166787469e-05  2.6340092762451449e-42  2.6028667829980360e-28  6.2619604139653684e-54  3.3535151749662690e-20  3.3822685868484662e-20  3.0499116597373054e-20  4.4640005083715199e-38  1.0557846684124911e-50  2.3624476278981678e-29  5.7210950009540308e-06  2.6670965285601521e-16  2.5268956700360758e-44  4.2164019363472059e-36  2.6914402406546229e-40  3.0348292496972556e-69  9.5693233668536376e-30  2.4848269308868081e-04  6.4768556888747624e-54  3.5617011769391128e-51  1.0970472729481094e-27  5.2421154820950433e-27  1.6995712578646076e-65  2.0965482743846380e-10  4.0300122292843956e-10  1.0013071894581673e-06  8.8881762431180383e-05  5.1122744505303622e-74  8.1412538370299611e-22  3.7039469568174458e-63  5.3025820863327564e-02  7.3391305226557524e-55  3.5488075176069959e-61  4.6826528518357571e-03  1.2124484081685451e-28  5.0468340380453154e-44  3.8535308621910859e-07  3.7225332037757715e-08  3.8369921052511035e-04  2.3916103528257657e-29  7.3745363811915831e-66  1.5803959575910621e-15  6.5485423927570452e-02  1.1025429218595100e-47  6.8654669764258459e-74  2.4379936346664323e-68  9.1930275619316812e-15  7.0039404383615825e-27  2.3080958259454539e-32  4.4606240407352381e-61  2.3887009929149291e-59  7.9242291405832575e-58  5.8488701291627487e-15  1.4259081289317887e-15  1.9870176064500375e-03  8.9951950819857716e-03  5.1948315758318875e-02  7.7430982517747877e-45  1.1298632958230135e-05  3.5319355117978744e-55  5.1458205322662246e-42  1.0220210797563067e-72  7.9394350935837338e-49  3.1530305143662183e-67  1.5654204919321962e-06  1.4693614706111466e-24  1.9113607940581823e-49  3.8567476410776631e-12  9.8308587761779688e-48  1.7180809907965300e-30  1.2028462050008883e-20  1.3768693962046338e-26  7.0419326191081320e-39  2.6389165321174018e-58  2.9955997184536125e+00  3.0411453715569414e-01  1.0475654511678052e+00  8.8067792660639739e-35  2.8758894619737351e-26  3.2316728268830914e-41  1.3071790446360307e-82  5.4314908917274859e-12  5.1766522915553047e-19  3.6562226007011331e-03  1.6617041049895281e-73  3.6036006649788459e-13  4.2241109935083781e-20  6.2648550985027429e-08  6.7573776940992585e-09  5.8704547380578531e-26  2.0386557112924908e-30  4.3325623838302648e-23  1.0710006921159669e+00  2.8347662387844802e-01  2.0647450357810280e-43  2.0354463133326848e-45  2.4945312084173651e-55  3.1732716074628038e+00  7.6490993826033318e-74  1.5398382459069079e-36  5.5474884703158200e-90  6.6078396022980879e-84  3.0027899474736403e-68  5.2616879002608721e-74  1.4524978722968829e-01  6.4768556888744866e-54  9.6195305131013000e-11  1.0521854152093035e-06  1.5887139491032848e-01  1.7333826731817126e-09  6.0610769654681617e-07  1.3851163673051867e-11  5.8697415474948528e-16  3.2370678639623837e-17  2.4949693137000160e-49  4.0720533656776209e-51  2.4054563436955649e-26  5.4694941324795184e-55  4.4889362743597547e-58  8.7294817363442755e-33  5.5619383570013321e-13  3.8205224411633367e-36  1.0614135403167853e-26  1.2418739175404480e-89  1.0040212736584473e-10  4.2240375235119760e-08  1.6619897077765314e-56  1.0521854152093186e-06  1.7143549005852953e-84  1.6994499828502906e-64  5.9368062410590367e-78  2.1938255015009016e-48  2.4848269308868216e-04  1.7143549005852953e-84  8.1326676690148001e-22  3.2515961638145746e-01  1.6994499828503874e-64  6.8654669764260407e-74  8.2222547857813288e-43  1.2418739175404480e-89  1.3756292061356918e-88  1.3756292061357699e-88  5.9368062410586992e-78  1.0614135403167627e-26  2.6273802336859315e-17  1.0851926966545703e-09  3.0383663364541895e-13  1.4524978722968862e-01  2.6273802336859130e-17  8.1326676690148001e-22  6.9743993908570160e-32  1.3112684834277225e-02  3.0383663364542324e-13  1.0851926966545510e-09  1.3112684834277247e-02  6.9743993908571145e-32  7.2593354509592779e-87  2.2179920492274405e-69  2.5863434566898780e-59  2.2179920492275666e-69  1.6622109865365092e-81  8.7794043108616526e-76  </DataArray> 
</PointData> 
</Piece>
</UnstructuredGrid>
</VTKFile>