<?xml version="1.0"?>
<VTKFile type="UnstructuredGrid"  version="0.1"  >
<UnstructuredGrid>
<Piece  NumberOfPoints="81" NumberOfCells="128">
<Points>
<DataArray  type="Float64"  NumberOfComponents="3"  format="ascii">0 0 0  0.125 0 0  0.25 0 0  0.375 0 0  0.5 0 0  0.625 0 0  0.75 0 0  0.875 0 0  1 0 0  0 0.125 0  0.125 0.125 0  0.25 0.125 0  0.375 0.125 0  0.5 0.125 0  0.625 0.125 0  0.75 0.125 0  0.875 0.125 0  1 0.125 0  0 0.25 0  0.125 0.25 0  0.25 0.25 0  0.375 0.25 0  0.5 0.25 0  0.625 0.25 0  0.75 0.25 0  0.875 0.25 0  1 0.25 0  0 0.375 0  0.125 0.375 0  0.25 0.375 0  0.375 0.375 0  0.5 0.375 0  0.625 0.375 0  0.75 0.375 0  0.875 0.375 0  1 0.375 0  0 0.5 0  0.125 0.5 0  0.25 0.5 0  0.375 0.5 0  0.5 0.5 0  0.625 0.5 0  0.75 0.5 0  0.875 0.5 0  1 0.5 0  0 0.625 0  0.125 0.625 0  0.25 0.625 0  0.375 0.625 0  0.5 0.625 0  0.625 0.625 0  0.75 0.625 0  0.875 0.625 0  1 0.625 0  0 0.75 0  0.125 0.75 0  0.25 0.75 0  0.375 0.75 0  0.5 0.75 0  0.625 0.75 0  0.75 0.75 0  0.875 0.75 0  1 0.75 0  0 0.875 0  0.125 0.875 0  0.25 0.875 0  0.375 0.875 0  0.5 0.875 0  0.625 0.875 0  0.75 0.875 0  0.875 0.875 0  1 0.875 0  0 1 0  0.125 1 0  0.25 1 0  0.375 1 0  0.5 1 0  0.625 1 0  0.75 1 0  0.875 1 0  1 1 0  </DataArray>
</Points>
<Cells>
<DataArray  type="UInt32"  Name="connectivity"  format="ascii">0 1 10  0 9 10  1 2 11  1 10 11  2 3 12  2 11 12  3 4 13  3 12 13  4 5 14  4 13 14  5 6 15  5 14 15  6 7 16  6 15 16  7 8 17  7 16 17  9 10 19  9 18 19  10 11 20  10 19 20  11 12 21  11 20 21  12 13 22  12 21 22  13 14 23  13 22 23  14 15 24  14 23 24  15 16 25  15 24 25  16 17 26  16 25 26  18 19 28  18 27 28  19 20 29  19 28 29  20 21 30  20 29 30  21 22 31  21 30 31  22 23 32  22 31 32  23 24 33  23 32 33  24 25 34  24 33 34  25 26 35  25 34 35  27 28 37  27 36 37  28 29 38  28 37 38  29 30 39  29 38 39  30 31 40  30 39 40  31 32 41  31 40 41  32 33 42  32 41 42  33 34 43  33 42 43  34 35 44  34 43 44  36 37 46  36 45 46  37 38 47  37 46 47  38 39 48  38 47 48  39 40 49  39 48 49  40 41 50  40 49 50  41 42 51  41 50 51  42 43 52  42 51 52  43 44 53  43 52 53  45 46 55  45 54 55  46 47 56  46 55 56  47 48 57  47 56 57  48 49 58  48 57 58  49 50 59  49 58 59  50 51 60  50 59 60  51 52 61  51 60 61  52 53 62  52 61 62  54 55 64  54 63 64  55 56 65  55 64 65  56 57 66  56 65 66  57 58 67  57 66 67  58 59 68  58 67 68  59 60 69  59 68 69  60 61 70  60 69 70  61 62 71  61 70 71  63 64 73  63 72 73  64 65 74  64 73 74  65 66 75  65 74 75  66 67 76  66 75 76  67 68 77  67 76 77  68 69 78  68 77 78  69 70 79  69 78 79  70 71 80  70 79 80  </DataArray>
<DataArray  type="UInt32"  Name="offsets"  format="ascii">3 6 9 12 15 18 21 24 27 30 33 36 39 42 45 48 51 54 57 60 63 66 69 72 75 78 81 84 87 90 93 96 99 102 105 108 111 114 117 120 123 126 129 132 135 138 141 144 147 150 153 156 159 162 165 168 171 174 177 180 183 186 189 192 195 198 201 204 207 210 213 216 219 222 225 228 231 234 237 240 243 246 249 252 255 258 261 264 267 270 273 276 279 282 285 288 291 294 297 300 303 306 309 312 315 318 321 324 327 330 333 336 339 342 345 348 351 354 357 360 363 366 369 372 375 378 381 384 </DataArray>
<DataArray  type="UInt8"  Name="types"  format="ascii">5 5 5 5 5 5 5 5 5 5 5 5 5 5 5 5 5 5 5 5 5 5 5 5 5 5 5 5 5 5 5 5 5 5 5 5 5 5 5 5 5 5 5 5 5 5 5 5 5 5 5 5 5 5 5 5 5 5 5 5 5 5 5 5 5 5 5 5 5 5 5 5 5 5 5 5 5 5 5 5 5 5 5 5 5 5 5 5 5 5 5 5 5 5 5 5 5 5 5 5 5 5 5 5 5 5 5 5 5 5 5 5 5 5 5 5 5 5 5 5 5 5 5 5 5 5 5 5 </DataArray>
</Cells>
<PointData  Scalars="f_28"> 
<DataArray  type="Float64"  Name="f_28"  format="ascii">1.2400000000000000e+00  1.2556250000000000e+00  1.3025000000000000e+00  1.3806250000000000e+00  1.4900000000000000e+00  1.6306250000000000e+00  1.8025000000000000e+00  2.0056250000000002e+00  2.2400000000000002e+00  1.2868750000000000e+00  1.3169142472419746e+00  1.3746478336392398e+00  1.4592689495466968e+00  1.5707426894128476e+00  1.7091022192787089e+00  1.8742913411559807e+00  2.0664309408481096e+00  2.2868750000000002e+00  1.4275000000000000e+00  1.4683978336392398e+00  1.5347980505890120e+00  1.6247538611167440e+00  1.7380110795994177e+00  1.8746005220404367e+00  2.0344943132317521e+00  2.2180413411559798e+00  2.4275000000000002e+00  1.6618750000000000e+00  1.7092689495466964e+00  1.7810038611167436e+00  1.8743377454705143e+00  1.9887588002207888e+00  2.1242567606554794e+00  2.2808505220404367e+00  2.4591022192787091e+00  2.6618750000000002e+00  1.9899999999999998e+00  2.0394926894128464e+00  2.1130110795994166e+00  2.2075088002207885e+00  2.3223533191714512e+00  2.4575088002207894e+00  2.6130110795994179e+00  2.7894926894128473e+00  2.9900000000000002e+00  2.4118750000000002e+00  2.4591022192787078e+00  2.5308505220404358e+00  2.6242567606554785e+00  2.7387588002207881e+00  2.8743377454705139e+00  3.0310038611167447e+00  3.2092689495466966e+00  3.4118750000000002e+00  2.9275000000000002e+00  2.9680413411559798e+00  3.0344943132317512e+00  3.1246005220404354e+00  3.2380110795994170e+00  3.3747538611167425e+00  3.5347980505890106e+00  3.7183978336392385e+00  3.9275000000000002e+00  3.5368750000000002e+00  3.5664309408481092e+00  3.6242913411559803e+00  3.7091022192787100e+00  3.8207426894128478e+00  3.9592689495466948e+00  4.1246478336392389e+00  4.3169142472419741e+00  4.5368750000000002e+00  4.2400000000000002e+00  4.2556250000000002e+00  4.3025000000000002e+00  4.3806250000000002e+00  4.4900000000000002e+00  4.6306250000000002e+00  4.8025000000000002e+00  5.0056250000000002e+00  5.2400000000000002e+00  </DataArray> 
</PointData> 
</Piece>
</UnstructuredGrid>
</VTKFile>